XDATCAR file generated from lammps dump file with dump2xdat.py
1
8.54988 0 0
0 8.54988 0
0 0 8.54988
H
500
Direct configuration=   1
0.122045 0.025437 0.0865042
0.135938 0.154789 0.0977729
0.0170231 0.095408 0.0513912
0.0280182 0.211093 0.119078
0.201664 0.189499 0.976175
0.0557115 0.0812541 0.187412
0.215612 0.0435697 0.181697
0.186063 0.17699 0.211724
0.258125 0.0786886 0.0726109
0.444557 0.133179 0.0557677
0.42596 0.0209536 0.10542
0.298336 0.194326 0.0776211
0.33991 0.0850141 0.18413
0.502368 0.19877 0.226086
0.388163 0.196405 0.215085
0.5094 0.0167459 0.0236792
0.6764 0.0860904 0.144313
0.573393 0.117886 0.0362386
0.552354 0.0713298 0.161492
0.763463 0.0851251 0.0486336
0.635056 0.200882 0.17249
0.527668 0.214209 0.093096
0.685365 0.189768 0.0127776
0.841483 0.997706 0.143495
0.937888 0.108885 0.150433
0.880732 0.151669 0.0563604
0.917502 0.0369222 0.0276005
0.766792 0.24402 0.159211
0.976611 0.222901 0.00795385
0.824989 0.125915 0.194011
0.742455 0.0227839 0.228539
0.882077 0.00631091 0.256281
0.915483 0.205852 0.229659
0.138137 0.273471 0.158101
0.188813 0.321916 0.0337583
0.0515029 0.334008 0.0650974
0.177206 0.506208 0.138965
0.0651606 0.450313 0.0169102
0.0479915 0.452063 0.15688
0.250814 0.485949 0.0248809
0.102224 0.370515 0.227509
0.247963 0.410352 0.175596
0.409804 0.268658 0.0855963
0.337796 0.488071 0.124876
0.339151 0.381444 0.0589851
0.45123 0.441881 0.119419
0.269799 0.284424 0.172171
0.367335 0.350464 0.172161
0.569242 0.295928 0.182174
0.625921 0.29656 0.0589694
0.49993 0.349327 0.0530737
0.575419 0.441218 0.0467815
0.76914 0.497542 0.116373
0.745462 0.382616 0.0299173
0.654573 0.37695 0.141078
0.559232 0.41365 0.231391
0.79506 0.250491 0.0410012
0.894656 0.25999 0.117837
0.829369 0.374269 0.118958
0.936166 0.387585 0.10587
0.865993 0.432299 0.00465924
0.00335318 0.310746 0.188463
0.749715 0.347571 0.222204
0.872737 0.450838 0.201292
0.142332 0.555018 0.0271591
0.0552789 0.569134 0.107168
0.165223 0.637499 0.109047
0.121509 0.73642 0.0487654
0.049273 0.682256 0.142162
0.240099 0.712651 0.0425684
0.000848309 0.547983 0.221204
0.117835 0.609066 0.210509
0.16492 0.739456 0.1621
0.294234 0.604683 0.0403892
0.42345 0.593302 0.076788
0.305405 0.65627 0.151809
0.362984 0.711578 0.987339
0.236524 0.548007 0.235217
0.423665 0.561257 0.205301
0.396592 0.734 0.236086
0.531427 0.541064 0.0927972
0.6393 0.606353 0.123813
0.68917 0.551804 0.0175032
0.648557 0.681097 0.0167567
0.5233 0.693586 0.063602
0.650388 0.522669 0.233569
0.542256 0.598113 0.202934
0.635433 0.713996 0.21631
0.769377 0.630318 0.102159
0.84665 0.571176 0.0123953
0.957446 0.510374 0.0108322
0.914277 0.539059 0.130866
0.90884 0.650731 0.082401
0.820632 0.744957 0.105856
0.992436 0.642412 0.00409535
0.766663 0.552596 0.22265
0.775834 0.673618 0.22732
0.941748 0.701122 0.21471
0.196649 0.821586 0.0767023
0.0904007 0.906255 0.0438289
0.190029 0.951823 0.0068149
0.990529 0.936154 0.266098
0.113189 0.984984 0.250956
0.109575 0.848639 0.167752
0.32455 0.835629 0.0633228
0.421888 0.744715 0.111339
0.247818 0.900198 0.164369
0.399645 0.893008 0.136403
0.31217 0.965253 0.0264904
0.296201 0.78596 0.217507
0.413312 0.862887 0.255273
0.370651 0.975608 0.276126
0.466723 0.994574 0.213616
0.527107 0.778372 0.158945
0.726024 0.78983 0.177386
0.542519 0.910213 0.112735
0.634195 0.00255893 0.0353428
0.657653 0.873982 0.11335
0.755779 0.962405 0.049517
0.622604 0.847386 0.216205
0.609649 0.969345 0.185409
0.753036 0.833816 0.0438604
0.946862 0.766498 0.0544773
0.864321 0.910089 0.0501767
0.937807 0.867078 0.166585
0.0130201 0.978423 0.121464
0.845169 0.782792 0.216766
0.788242 0.895426 0.152464
0.0900542 0.123166 0.312139
0.00589657 0.224986 0.308907
0.996178 0.153729 0.426365
0.111552 0.0503674 0.417209
0.127726 0.19869 0.446835
0.351689 0.129116 0.332705
0.479258 0.0960716 0.295223
0.249037 0.223364 0.327798
0.238053 0.0587528 0.428546
0.393852 0.0297114 0.38543
0.484006 0.137175 0.43187
0.384671 0.0887233 0.512807
0.281403 0.200829 0.451241
0.594748 0.0973829 0.266842
0.717585 0.138145 0.246918
0.596848 0.0646408 0.408478
0.709699 0.118971 0.454749
0.735985 0.0672251 0.357952
0.534756 0.219947 0.337416
0.627971 0.215987 0.447352
0.659033 0.168102 0.342523
0.849099 0.116151 0.317388
0.96818 0.0863809 0.305933
0.808903 0.22801 0.278151
0.810184 0.0339428 0.510294
0.958302 0.0249891 0.404574
0.870427 0.101491 0.438858
0.766416 0.197407 0.382015
0.901515 0.225751 0.373847
0.140695 0.276555 0.294864
0.118575 0.494691 0.233892
0.202768 0.402538 0.317441
0.0560792 0.280188 0.406469
0.183705 0.311264 0.41334
0.0844027 0.397804 0.349126
0.13951 0.459022 0.439016
0.0630393 0.384802 0.487632
0.332842 0.331024 0.293019
0.46144 0.308404 0.287383
0.321298 0.476985 0.296946
0.450242 0.438413 0.282813
0.383674 0.240867 0.373793
0.404938 0.268667 0.487681
0.294042 0.362143 0.399028
0.409635 0.38686 0.396514
0.492165 0.485477 0.414095
0.669456 0.266632 0.285317
0.585124 0.337346 0.31295
0.692788 0.41899 0.307812
0.701999 0.30353 0.394992
0.535886 0.349666 0.425994
0.629369 0.441441 0.428065
0.651297 0.322867 0.504292
0.980846 0.412181 0.269122
0.874667 0.327013 0.236595
0.828588 0.313022 0.459861
0.942661 0.287302 0.474656
0.746368 0.415908 0.430998
0.88589 0.404602 0.371293
0.981959 0.459654 0.430116
0.867526 0.484456 0.470205
0.10811 0.705581 0.310195
0.21893 0.684712 0.253099
0.153251 0.593661 0.344548
0.00676171 0.64132 0.44934
0.0488006 0.538434 0.360157
0.121716 0.673803 0.424125
0.210676 0.74291 0.36901
0.33815 0.621254 0.286388
0.460248 0.590816 0.310314
0.268163 0.550716 0.37384
0.300542 0.664445 0.411774
0.383867 0.564373 0.410651
0.477654 0.621747 0.474435
0.390553 0.734986 0.484297
0.42996 0.691371 0.380237
0.556076 0.517153 0.319066
0.679411 0.619412 0.305035
0.630178 0.772536 0.324161
0.557936 0.654819 0.337739
0.628846 0.558876 0.406184
0.704283 0.685506 0.402581
0.99297 0.656499 0.323709
0.876819 0.603917 0.220795
0.788979 0.51158 0.343224
0.774995 0.578304 0.436008
0.891627 0.603605 0.387102
0.919738 0.520553 0.294103
0.857672 0.705013 0.437747
0.0307428 0.782578 0.243106
0.173274 0.82276 0.258836
0.201415 0.998 0.331611
0.150724 0.7957 0.479639
0.0327324 0.760714 0.38618
0.07964 0.893713 0.331055
0.124036 0.935931 0.442843
0.187064 0.865571 0.380664
0.301229 0.869401 0.297718
0.511131 0.991411 0.351946
0.287499 0.804598 0.450501
0.3349 0.762294 0.3452
0.290394 0.917977 0.411665
0.419805 0.862949 0.378454
0.496832 0.7724 0.307285
0.52456 0.894591 0.25186
0.633248 0.986986 0.304976
0.654155 0.799575 0.433606
0.542426 0.744041 0.429392
0.550218 0.866201 0.382223
0.533962 0.971707 0.468774
0.686421 0.908114 0.398772
0.666894 -0.00181929 0.473268
0.784838 0.752173 0.352902
0.762089 0.890283 0.277918
0.89392 0.873711 0.289665
0.816167 0.981655 0.35313
0.766511 0.789724 0.478867
0.9165 0.757205 0.343151
0.883934 0.827474 0.507667
0.810122 0.88527 0.427343
0.95607 0.884599 0.417692
0.0693796 0.106292 0.539359
0.0313517 0.997759 0.505798
0.0209998 0.0323898 0.641093
0.212653 0.150877 0.524267
0.171894 0.0724004 0.673336
0.136817 0.209869 0.665758
0.282582 0.0540689 0.606925
0.395974 0.101372 0.65247
0.471497 0.0118409 0.577166
0.325333 0.181912 0.57441
0.452853 0.171687 0.563979
0.459564 0.213908 0.678318
0.248064 0.159404 0.697395
0.502938 0.049508 0.70128
0.342061 0.22964 0.698466
0.574173 0.0997568 0.51757
0.6906 0.0820333 0.571611
0.606529 0.222121 0.607672
0.721267 0.205483 0.543729
0.59836 0.115545 0.66008
0.713724 0.0819081 0.716486
0.702946 0.229386 0.684036
0.817018 0.0403109 0.640937
0.831778 0.153997 0.571708
0.928415 0.0806422 0.535819
0.918244 0.106821 0.681046
0.00736959 0.168074 0.638168
0.816824 0.0700902 0.764233
0.851044 0.225806 0.699541
0.0351047 0.234237 0.54254
0.149224 0.301754 0.527066
0.993043 0.342973 0.590041
0.0946101 0.385758 0.615137
0.0756015 0.308066 0.739883
0.094781 0.44936 0.733821
0.218678 0.490453 0.680539
0.176754 0.357556 0.700695
0.269735 0.305223 0.503886
0.234965 0.273932 0.616167
0.532046 0.272727 0.517901
0.384544 0.302101 0.607269
0.284603 0.479987 0.477772
0.272736 0.394837 0.595154
0.367333 0.395922 0.504699
0.395019 0.45158 0.654044
0.428947 0.504632 0.543784
0.518289 0.49721 0.645673
0.438826 0.309166 0.744437
0.327548 0.367871 0.724442
0.641293 0.342419 0.629374
0.491082 0.350286 0.613394
0.529422 0.427246 0.515158
0.632156 0.469093 0.612485
0.565953 0.289891 0.707548
0.624194 0.415978 0.721415
0.780055 0.441564 0.669967
0.764577 0.310799 0.605982
0.90614 0.252026 0.589357
0.749978 0.429577 0.549844
0.857705 0.378888 0.566132
0.995641 0.472158 0.556944
0.960986 0.261349 0.721968
0.890213 0.508241 0.639154
0.840738 0.348162 0.714749
0.954481 0.410681 0.701085
0.124961 0.581526 0.492785
0.09618 0.647743 0.634524
1.00119 0.594737 0.584557
0.115301 0.519823 0.597135
0.230393 0.570382 0.551204
0.0627534 0.711938 0.523554
0.24265 0.704257 0.518844
0.989781 0.566691 0.70718
0.21379 0.632535 0.689769
0.326785 0.573448 0.649982
0.355816 0.609662 0.541885
0.45591 0.613561 0.601731
0.387362 0.669717 0.699804
0.428065 0.548901 0.710514
0.611004 0.651994 0.492135
0.553659 0.55406 0.537871
0.59872 0.653528 0.627917
0.675325 0.534767 0.51545
0.747918 0.669718 0.54292
0.705703 0.554995 0.651544
0.527665 0.722731 0.541714
0.660541 0.767735 0.563283
0.703747 0.723756 0.668966
0.60011 0.550141 0.724131
0.502524 0.636724 0.7412
0.495249 0.735547 0.664559
0.79242 0.550057 0.565183
0.887213 0.626871 0.636506
0.899762 0.604417 0.522876
0.946654 0.734291 0.550814
0.811141 0.566428 0.72133
0.818948 0.714379 0.728815
0.971847 0.71035 0.709112
0.0243261 0.799694 0.635653
0.161961 0.772005 0.599353
0.0192329 0.821304 0.501613
0.185406 0.0155773 0.522615
0.13073 0.894328 0.577402
0.995207 0.917833 0.588042
0.114965 0.742282 0.727291
0.137442 0.962892 0.691642
0.0180454 0.924349 0.717721
0.188347 0.848876 0.70429
0.282075 0.759372 0.625246
0.37071 0.817161 0.557259
0.247099 0.934579 0.628871
0.309277 0.955208 0.521878
0.382687 0.923444 0.622183
0.41539 0.919993 0.49474
0.505876 0.910409 0.629324
0.389509 0.803065 0.68827
0.58495 0.795438 0.653549
0.608933 0.957371 0.577494
0.514329 0.841439 0.495377
0.70854 0.87972 0.532271
0.703561 0.957671 0.654807
0.598798 0.724181 0.760076
0.590251 0.958957 0.708383
0.547074 0.837732 0.768762
0.781354 0.791677 0.6039
0.911814 0.83332 0.655579
0.810704 0.916701 0.580167
0.905687 0.957379 0.50238
0.792739 0.874853 0.689896
0.914552 0.952429 0.66241
0.0616015 0.108435 0.766371
0.181366 0.079964 0.785085
0.156671 0.0698561 0.979366
0.036516 0.988449 0.977825
0.0966265 0.0262219 0.850974
0.0783688 0.179552 0.956608
0.139763 0.209563 0.8279
0.271365 0.169707 0.835289
0.422596 0.129973 0.768996
0.317122 0.0562015 0.832351
0.270862 0.0918485 0.934189
0.405732 0.129318 0.89795
0.381278 0.0655156 0.995536
0.354161 0.222112 0.966002
0.481143 0.196992 0.959304
0.381066 0.236948 0.8387
0.613346 0.189227 0.787215
0.621128 0.036887 0.796521
0.535094 0.0975374 0.846909
0.596081 0.169959 0.926369
0.638624 0.0521661 0.926931
0.724564 0.0925383 0.839515
0.703428 0.238695 0.886918
0.903904 0.16704 0.796694
0.961001 0.0300806 0.779283
0.775601 0.204326 0.792938
0.781447 0.129917 0.939915
0.871179 0.0666274 0.871368
0.982461 0.0905648 0.928196
0.883017 0.197236 0.932539
0.224848 0.267467 0.761249
0.15722 0.380843 0.819382
0.247305 0.281647 0.889458
0.10179 0.368676 0.931526
0.14868 0.486229 0.906707
0.026643 0.430333 0.834897
0.271898 0.448444 0.837986
0.393967 0.469248 0.787985
0.499554 0.428897 0.748743
0.356752 0.359595 0.852925
0.286156 0.376486 0.951211
0.410898 0.329558 0.968053
0.425025 0.491963 0.0122411
0.629493 0.315673 0.80917
0.722128 0.344431 0.746958
0.502326 0.239037 0.835797
0.569754 0.280913 0.927869
0.637655 0.453275 0.948963
0.500626 0.358648 0.851817
0.596267 0.442765 0.839696
0.516632 0.477292 0.921623
0.688039 0.357667 0.901517
0.0122192 0.296701 0.859654
0.874705 0.292469 0.826323
0.813001 0.320572 0.933375
0.786496 0.429501 0.809441
0.768977 0.457585 0.925578
0.95248 0.334303 0.982994
0.883993 0.400787 0.868842
0.0987939 0.621968 0.768748
0.167683 0.53122 0.793804
0.0391429 0.548584 0.92974
0.108336 0.647662 0.94823
0.238475 0.576147 0.937894
0.19811 0.644928 0.843116
0.246339 0.733551 0.914748
0.306704 0.57319 0.774753
0.510787 0.536636 0.811992
0.413697 0.618771 0.827243
0.301925 0.720514 0.767291
0.35159 0.525728 0.894249
0.32118 0.650218 0.886864
0.471313 0.624952 0.950084
0.704092 0.6281 0.757028
0.702585 0.499436 0.755934
0.589971 0.584679 0.961652
0.684256 0.542424 0.867326
0.760966 0.648399 0.941054
0.553165 0.678819 0.868996
0.682313 0.710768 0.842799
0.884722 0.477982 0.770957
0.904511 0.619249 0.792868
0.811823 0.5693 0.856613
0.928203 0.517159 0.892372
0.901413 0.633009 0.920309
0.839199 0.762721 0.978597
0.00916971 0.674618 0.836608
0.020431 0.798961 0.795604
0.158063 0.899457 0.832859
0.273095 0.971698 0.748381
0.242305 0.814048 0.819452
0.145049 0.841222 0.949233
0.117215 0.742843 0.860249
0.00496898 0.76734 0.950903
0.0440193 0.910873 0.892078
0.2211 0.9892 0.890239
0.465699 0.746477 0.787005
0.40256 0.980201 0.750487
0.355375 0.870147 0.801867
0.36589 0.775295 0.877955
0.280029 0.859652 0.950407
0.452727 0.0186217 0.893824
0.467802 0.89596 0.847604
0.413234 0.891829 0.99131
0.346831 0.950365 0.896798
0.685778 0.853548 0.796702
0.593259 0.818638 0.895109
0.48055 0.761614 0.951028
0.538444 0.88381 0.967124
0.582087 0.940431 0.846566
0.67716 0.900106 0.986805
0.7121 0.797686 0.930817
0.716323 0.943159 0.879696
0.786337 0.787649 0.825182
0.843905 0.964501 0.80737
0.946669 0.890822 0.810951
0.918456 0.77496 0.870872
0.812395 0.0137414 0.960928
0.940793 0.974292 0.899828
0.966086 0.880815 1.00554
0.850661 0.875868 0.926608
Direct configuration=   2
0.13825 -0.00858789 0.116555
0.152154 0.142284 0.120677
0.0479591 0.0924285 0.064884
0.0264099 0.191992 0.144933
0.202699 0.21363 0.951903
0.0614539 0.0914798 0.196869
0.240452 0.0118639 0.223904
0.214586 0.143153 0.22572
0.237712 0.0620521 0.062342
0.424415 0.140137 0.0949433
0.444922 0.015961 0.0914756
0.24702 0.193992 0.0855616
0.355187 0.034079 0.183289
0.495879 0.165827 0.221478
0.340994 0.170742 0.216959
0.510809 0.0223435 0.989152
0.69048 0.0665283 0.13795
0.559184 0.126511 0.0166613
0.546264 0.0995695 0.135441
0.774774 0.102706 0.0479099
0.648215 0.177508 0.144469
0.544426 0.224907 0.109836
0.678567 0.190102 0.0326949
0.844916 0.006588 0.133385
0.943963 0.0724563 0.14104
0.893916 0.155512 0.0177159
0.924152 0.02144 0.0308296
0.771273 0.225823 0.133598
0.998991 0.206331 0.00525886
0.838914 0.131515 0.175074
0.739524 0.982281 0.209395
0.869543 0.00905148 0.267727
0.935228 0.183001 0.215467
0.114047 0.270009 0.142108
0.193036 0.299665 0.065693
0.037056 0.310976 0.0397277
0.196721 0.513139 0.126007
0.0845757 0.431498 0.0337885
0.0510598 0.450229 0.15901
0.277296 0.47999 0.0218482
0.143937 0.361992 0.220403
0.256046 0.40993 0.184708
0.38961 0.259445 0.069707
0.320964 0.521249 0.142355
0.360724 0.391856 0.073394
0.449878 0.421088 0.146502
0.25147 0.280969 0.193339
0.375292 0.333683 0.179117
0.564979 0.309942 0.205276
0.621639 0.312462 0.0492161
0.497173 0.338968 0.0816052
0.596166 0.44425 0.0731351
0.800608 0.485244 0.103006
0.705013 0.407508 0.0260334
0.677232 0.377692 0.157523
0.554662 0.432265 0.189603
0.825755 0.26158 0.0213948
0.923308 0.247339 0.0959968
0.815369 0.341539 0.126049
0.947409 0.405389 0.064629
0.850485 0.438623 0.000689394
0.011223 0.328648 0.172731
0.759053 0.363658 0.245665
0.874433 0.423124 0.187943
0.148931 0.550232 0.00793607
0.0653814 0.55821 0.0973471
0.179654 0.636644 0.0902331
0.105532 0.759482 0.0349375
0.0681728 0.699687 0.131956
0.240224 0.743412 0.0450547
-0.00313978 0.563899 0.210272
0.112307 0.612735 0.19714
0.17814 0.761264 0.146335
0.306879 0.595672 0.0344013
0.430085 0.641619 0.0975907
0.292414 0.646763 0.158124
0.348362 0.703998 0.989032
0.241175 0.51793 0.233542
0.438544 0.547103 0.198414
0.41849 0.693027 0.237054
0.522465 0.536108 0.105014
0.636964 0.605668 0.112282
0.740213 0.542688 0.0178605
0.659228 0.686897 0.00391054
0.524002 0.693231 0.01785
0.660029 0.510361 0.194239
0.566155 0.586564 0.219247
0.635887 0.695759 0.201133
0.788458 0.625513 0.11716
0.850989 0.571438 -0.00149925
0.984706 0.517987 -0.00553197
0.927049 0.517749 0.122574
0.910093 0.650631 0.0817235
0.828185 0.749833 0.121118
0.0210143 0.636405 0.996427
0.773762 0.563709 0.239745
0.758416 0.685128 0.217438
0.951653 0.720518 0.193975
0.205217 0.861649 0.0682557
0.0803693 0.899729 0.0495093
0.175413 0.950696 0.973589
0.990695 0.981614 0.26929
0.119365 0.989138 0.249651
0.0921889 0.88526 0.183859
0.327055 0.836402 0.0736553
0.396105 0.746655 0.109278
0.205897 0.90183 0.181119
0.38252 0.91233 0.151393
0.29746 0.94982 0.0589965
0.307188 0.779041 0.188934
0.381715 0.880339 0.271918
0.343178 0.0147992 0.306445
0.472673 0.0216665 0.2188
0.517557 0.761564 0.199283
0.723132 0.801662 0.169219
0.509123 0.915107 0.09792
0.593037 0.995031 0.0758269
0.663646 0.877691 0.11265
0.748604 0.981727 0.0663996
0.626418 0.858031 0.233763
0.599183 0.985252 0.195457
0.768214 0.837665 0.0476396
0.983831 0.768789 0.0796022
0.856197 0.912923 0.0414923
0.965476 0.865401 0.17825
0.00866485 0.967119 0.126633
0.849399 0.785714 0.236798
0.836851 0.884714 0.160225
0.113052 0.127636 0.300192
0.0209012 0.261596 0.270551
0.99522 0.154096 0.455318
0.0858453 0.0625298 0.416328
0.148341 0.166916 0.428576
0.324957 0.11932 0.357085
0.449604 0.104699 0.319179
0.277389 0.222329 0.302623
0.273237 0.0825445 0.456206
0.417755 0.0233317 0.413252
0.492158 0.123883 0.439758
0.373748 0.0882516 0.522984
0.268929 0.201486 0.427454
0.599327 0.100331 0.240288
0.722601 0.123668 0.240758
0.592472 0.0619687 0.365464
0.710145 0.119069 0.455971
0.746644 0.0556244 0.344733
0.547831 0.201093 0.336922
0.610889 0.221121 0.445511
0.670565 0.176428 0.351922
0.837203 0.13079 0.299676
0.967275 0.0921105 0.294489
0.79887 0.250866 0.286583
0.778712 0.0174328 0.505631
0.949872 0.04038 0.400332
0.870317 0.119426 0.451416
0.767753 0.207555 0.410341
0.893672 0.244167 0.360889
0.152639 0.241113 0.318865
0.119953 0.478085 0.275769
0.228967 0.414751 0.306057
0.0682781 0.264609 0.423799
0.184535 0.330696 0.407258
0.0654648 0.373349 0.347596
0.16749 0.46118 0.407153
0.058905 0.369526 0.4869
0.324332 0.330765 0.290745
0.458336 0.3043 0.269008
0.343108 0.461459 0.279846
0.470163 0.448551 0.27374
0.369019 0.257752 0.384237
0.400321 0.237992 0.500193
0.310066 0.363589 0.407458
0.425715 0.376982 0.368587
0.48938 0.505842 0.430145
0.660981 0.255456 0.25885
0.587607 0.336796 0.332282
0.672756 0.413503 0.348818
0.703228 0.305195 0.387064
0.519322 0.366926 0.445371
0.628147 0.451393 0.470755
0.647912 0.328824 0.49629
0.983187 0.408056 0.259648
0.898644 0.312767 0.229785
0.814231 0.314094 0.439839
0.945052 0.28022 0.47468
0.748127 0.429311 0.443271
0.915778 0.382021 0.3833
0.976084 0.480838 0.456515
0.861688 0.490853 0.475585
0.122241 0.715008 0.278725
0.239237 0.661816 0.283851
0.149517 0.600779 0.342257
0.998811 0.630881 0.430859
0.0332881 0.535436 0.335926
0.133589 0.68075 0.421002
0.215423 0.758795 0.365017
0.348145 0.590438 0.258417
0.46132 0.59866 0.30455
0.261 0.550315 0.371728
0.314905 0.678572 0.379974
0.379282 0.567343 0.397275
0.475608 0.632242 0.464322
0.385185 0.741603 0.505848
0.429539 0.70369 0.370142
0.567995 0.475065 0.335373
0.674831 0.618741 0.286255
0.64932 0.761641 0.341211
0.559144 0.67355 0.308975
0.596697 0.597786 0.41037
0.691186 0.680145 0.408731
0.969152 0.634038 0.302022
0.876927 0.613492 0.196051
0.780201 0.474049 0.322887
0.786517 0.589139 0.41945
0.898351 0.56655 0.385111
0.909973 0.50096 0.278434
0.899761 0.726267 0.464275
0.0254333 0.793237 0.257418
0.175907 0.820818 0.269981
0.191436 0.00266011 0.346894
0.154213 0.79657 0.479304
0.063747 0.77327 0.396071
0.0782414 0.888822 0.324668
0.101617 0.919566 0.43565
0.205847 0.877594 0.402003
0.268211 0.905804 0.29885
0.503636 0.976913 0.335532
0.298833 0.822023 0.445976
0.339629 0.773242 0.303619
0.306564 0.961545 0.409941
0.405068 0.857824 0.407813
0.499272 0.790841 0.310899
0.516183 0.895663 0.239724
0.646124 0.961164 0.303787
0.632195 0.818977 0.456745
0.549714 0.730532 0.418034
0.564275 0.874092 0.382285
0.542844 0.985604 0.478549
0.709341 0.89819 0.398476
0.658945 0.00947918 0.467139
0.78138 0.782342 0.333194
0.741105 0.877227 0.277647
0.859126 0.893033 0.309587
0.827562 0.978851 0.401969
0.760904 0.770417 0.467094
0.936603 0.760956 0.328754
0.900226 0.833633 0.527691
0.840767 0.844677 0.421566
0.963352 0.870901 0.386238
0.0811917 0.092944 0.533178
0.0214625 0.980102 0.518299
0.0293615 0.0199367 0.633718
0.189253 0.177798 0.558573
0.129178 0.0863959 0.653857
0.110662 0.231833 0.688674
0.268213 0.0687503 0.613247
0.372845 0.065759 0.672355
0.46576 0.0187108 0.581508
0.358699 0.181387 0.603519
0.489415 0.145069 0.572656
0.481286 0.180792 0.683999
0.248015 0.14336 0.706282
0.494732 0.0443787 0.721809
0.349949 0.243349 0.724738
0.604117 0.112625 0.516176
0.695454 0.0789533 0.58526
0.607589 0.213107 0.602282
0.718814 0.231768 0.524635
0.576814 0.0936764 0.645319
0.72292 0.111881 0.709212
0.693693 0.230656 0.685144
0.804327 0.0493821 0.638
0.799718 0.149601 0.571127
0.949003 0.0772569 0.562908
0.926351 0.0871625 0.681447
0.021993 0.164201 0.641595
0.820049 0.0845349 0.759074
0.815808 0.214128 0.694546
0.0469804 0.217777 0.543183
0.153496 0.294618 0.543929
0.971873 0.32767 0.584997
0.100386 0.38498 0.614414
0.056882 0.340498 0.74212
0.0834823 0.464551 0.722106
0.208833 0.4829 0.682802
0.180802 0.362397 0.702986
0.269401 0.286728 0.503478
0.243562 0.242927 0.636176
0.52873 0.275202 0.518284
0.353181 0.305207 0.603976
0.325917 0.473573 0.452931
0.265248 0.402433 0.609892
0.41284 0.385161 0.51532
0.39409 0.400948 0.645246
0.40936 0.524722 0.521736
0.523222 0.538862 0.643218
0.442431 0.312285 0.727175
0.304088 0.366441 0.73596
0.643291 0.34655 0.615834
0.486568 0.319262 0.614089
0.512434 0.451248 0.552131
0.619698 0.486094 0.605925
0.569482 0.272652 0.696031
0.629244 0.416814 0.714223
0.799173 0.453612 0.672072
0.775828 0.309423 0.610262
0.900564 0.215891 0.593665
0.749649 0.427388 0.562135
0.860906 0.39462 0.532424
0.0124071 0.453782 0.573912
0.952242 0.262515 0.69565
0.890981 0.510455 0.613351
0.866202 0.349878 0.704342
0.990417 0.403226 0.677451
0.0911326 0.551063 0.471663
0.0956386 0.651345 0.638844
0.996664 0.588312 0.571359
0.111258 0.522855 0.60471
0.220778 0.575552 0.557913
0.0661957 0.702859 0.529893
0.234267 0.709394 0.513306
0.984424 0.525039 0.687239
0.224016 0.606987 0.68064
0.335236 0.569966 0.61843
0.325015 0.616538 0.505959
0.449533 0.633557 0.599505
0.383258 0.657809 0.719518
0.419875 0.53772 0.720001
0.630143 0.674397 0.521059
0.560867 0.564988 0.52002
0.580795 0.662148 0.630038
0.69026 0.558185 0.515262
0.755361 0.661388 0.551329
0.706961 0.584936 0.627685
0.502919 0.725029 0.533606
0.679464 0.77369 0.57928
0.692514 0.717162 0.686088
0.627426 0.573556 0.717042
0.511226 0.628838 0.739669
0.472965 0.758548 0.675605
0.798286 0.552267 0.565034
0.877587 0.646884 0.662756
0.888548 0.611679 0.509248
0.932935 0.727893 0.588751
0.808888 0.560738 0.705155
0.815707 0.733483 0.72916
1.00305 0.687569 0.700663
0.0514053 0.789752 0.639519
0.173559 0.757768 0.625175
0.0313512 0.829688 0.503313
0.150063 0.00264167 0.564999
0.10118 0.889897 0.591113
0.961419 0.89825 0.602504
0.136596 0.723208 0.73713
0.142194 0.970074 0.702522
0.0271174 0.917661 0.701617
0.21508 0.836801 0.694784
0.297387 0.740357 0.633869
0.392102 0.84587 0.568133
0.233698 0.908669 0.59775
0.296755 0.991077 0.530215
0.352495 0.959312 0.632716
0.414991 0.938624 0.501599
0.491493 0.87848 0.624763
0.377683 0.830428 0.704756
0.645334 0.846366 0.681302
0.604663 0.985271 0.58768
0.517762 0.841384 0.506361
0.69539 0.901452 0.533377
0.719289 0.969752 0.697045
0.599936 0.728839 0.757236
0.58481 0.938002 0.721469
0.537206 0.83957 0.76287
0.796487 0.765239 0.612774
0.891301 0.824215 0.671971
0.80753 0.925104 0.595354
0.897408 0.967224 0.494522
0.781309 0.865703 0.724141
0.8985 0.969386 0.697555
0.0714577 0.100405 0.764037
0.189871 0.0782668 0.781836
0.140398 0.0745031 0.976132
0.034661 0.988003 0.988168
0.0557101 0.0446854 0.876439
0.0710702 0.159954 0.919392
0.148032 0.194655 0.824106
0.287085 0.163374 0.839563
0.41719 0.131118 0.769474
0.334534 0.0286319 0.812565
0.276717 0.0938975 0.950457
0.396747 0.107678 0.899031
0.380346 0.0364108 0.996421
0.336049 0.211896 0.957524
0.48242 0.228735 0.981729
0.394331 0.248268 0.833481
0.633582 0.184123 0.797364
0.637837 0.0360387 0.754957
0.524457 0.0938093 0.819233
0.56742 0.179269 0.895701
0.626144 0.04813 0.938657
0.724987 0.10439 0.841934
0.664447 0.259663 0.903114
0.949904 0.192029 0.802329
0.976404 0.0170128 0.797499
0.75123 0.225188 0.819564
0.776053 0.19161 0.944532
0.876847 0.0965503 0.873394
0.970837 0.0945089 0.952689
0.894159 0.227123 0.917112
0.227106 0.259401 0.748586
0.133663 0.379979 0.82523
0.257956 0.298517 0.866451
0.123219 0.336757 0.953672
0.165138 0.454035 0.911507
0.00927505 0.417399 0.846744
0.253197 0.414242 0.831248
0.389374 0.485518 0.822114
0.501802 0.449128 0.72324
0.358055 0.364262 0.85922
0.261857 0.375274 0.958657
0.428084 0.335335 0.961005
0.405933 0.49666 0.0340606
0.605316 0.319074 0.807999
0.721469 0.335103 0.719995
0.505212 0.222107 0.797747
0.563449 0.345683 0.945257
0.645827 0.479225 0.953145
0.480323 0.378402 0.83144
0.622273 0.455504 0.838251
0.483616 0.437798 0.943373
0.693518 0.37327 0.877485
0.00772534 0.251789 0.89135
0.859967 0.286163 0.816422
0.798184 0.347001 0.929059
0.793405 0.382623 0.805862
0.778753 0.489558 0.910602
0.922621 0.322676 0.973426
0.888442 0.409929 0.871876
0.0748771 0.601257 0.752143
0.16979 0.523723 0.798158
0.0532845 0.537277 0.882563
0.127993 0.652625 0.932304
0.228043 0.571573 0.908625
0.177997 0.645675 0.818489
0.223645 0.748826 0.915686
0.28646 0.56316 0.786461
0.527053 0.523224 0.817988
0.415321 0.603065 0.831762
0.264544 0.686462 0.748346
0.350725 0.531103 0.932269
0.307308 0.666022 0.876847
0.46173 0.586038 0.944119
0.729887 0.632688 0.763962
0.716541 0.504162 0.758131
0.582317 0.585369 1.0048
0.670334 0.58513 0.874069
0.776844 0.663049 0.946916
0.555423 0.666473 0.894912
0.684165 0.701305 0.850604
0.893812 0.482249 0.760179
0.901544 0.633151 0.788374
0.809425 0.568008 0.830249
0.928376 0.539338 0.869578
0.886464 0.652181 0.914626
0.886939 0.753946 0.978363
0.015807 0.659903 0.847596
0.0187204 0.796612 0.764421
0.178321 0.886347 0.84629
0.264192 0.95841 0.713819
0.256336 0.80101 0.806997
0.135315 0.834373 0.942253
0.120274 0.771078 0.852819
-0.000841657 0.754457 0.94607
0.0459906 0.891261 0.870934
0.217806 0.998526 0.867225
0.465541 0.750088 0.80619
0.42706 0.949467 0.742932
0.327915 0.906288 0.811412
0.356275 0.804804 0.873873
0.27462 0.848491 0.964282
0.445412 0.991492 0.881852
0.454213 0.871132 0.84724
0.399725 0.889399 0.962957
0.320144 0.964274 0.919888
0.675219 0.890945 0.796705
0.606587 0.796712 0.885312
0.457359 0.781938 0.950315
0.526448 0.86771 0.973193
0.584849 0.953154 0.87065
0.657436 0.899572 0.96722
0.716387 0.784152 0.952575
0.71292 0.988705 0.87179
0.768423 0.813166 0.829626
0.810582 0.943986 0.814524
0.936512 0.885759 0.796299
0.899218 0.754774 0.846223
0.798925 0.0294173 0.941056
0.917673 0.961346 0.927141
0.967667 0.890669 0.0178287
0.830792 0.871889 0.92822
Direct configuration=   3
0.128125 0.993412 0.113185
0.150257 0.142204 0.127662
0.0371731 0.078455 0.0648452
0.0285975 0.192323 0.135241
0.194775 0.194164 0.985523
0.0613122 0.0704916 0.198535
0.265194 0.0212075 0.229927
0.209482 0.152379 0.236362
0.236456 0.0619186 0.10038
0.41824 0.152738 0.0993797
0.465682 -0.0161858 0.102803
0.280809 0.173217 0.102365
0.351111 0.0346853 0.150082
0.455741 0.176555 0.21248
0.330597 0.141647 0.209837
0.48794 0.0232013 0.94367
0.659583 0.0711235 0.114948
0.558028 0.132462 0.00848552
0.547309 0.102653 0.12918
0.746636 0.107996 0.0249726
0.634661 0.179575 0.162581
0.533732 0.223409 0.108866
0.667943 0.204814 0.0182209
0.855689 -0.00573694 0.137566
0.930943 0.0787698 0.177449
0.869866 0.130329 0.0228171
0.932423 0.0317144 0.0438164
0.741148 0.199475 0.108784
0.00970199 0.187002 0.00629638
0.825872 0.130032 0.162891
0.729827 0.984157 0.182323
0.862313 0.0385596 0.270499
0.909528 0.201275 0.21696
0.130331 0.261884 0.136856
0.228847 0.336113 0.0758063
0.0515657 0.301677 0.0237563
0.186408 0.515858 0.110487
0.126126 0.42947 0.0516042
0.0903804 0.463965 0.168201
0.259649 0.469008 0.0288969
0.146631 0.348203 0.226679
0.296424 0.402385 0.164059
0.354218 0.251078 0.049552
0.317583 0.524472 0.161039
0.341352 0.384494 0.0496301
0.430126 0.439177 0.158916
0.24601 0.263767 0.178392
0.376077 0.285898 0.17315
0.558673 0.328082 0.169316
0.628428 0.322387 0.0637492
0.485572 0.352172 0.0678905
0.592356 0.435958 0.042259
0.815947 0.486067 0.111868
0.729904 0.413159 0.00924176
0.701219 0.349458 0.162962
0.581653 0.442965 0.199818
0.823834 0.249347 0.0292714
0.932018 0.272446 0.100626
0.810228 0.364301 0.0926377
0.983607 0.41078 0.0613547
0.866791 0.421706 1.00836
0.00816494 0.348143 0.164023
0.796849 0.36848 0.263935
0.890519 0.408576 0.172345
0.139506 0.566455 0.991646
0.0595992 0.555479 0.0803275
0.173044 0.652676 0.0751801
0.121333 0.749172 0.0393563
0.0694506 0.682702 0.148706
0.246772 0.747811 0.0389284
0.0241407 0.570834 0.213565
0.138827 0.587674 0.199958
0.159083 0.790582 0.157545
0.27828 0.61932 0.0238268
0.456755 0.632824 0.103296
0.302756 0.648201 0.150719
0.369266 0.711782 0.0220119
0.237876 0.512877 0.25757
0.433736 0.551661 0.209388
0.4252 0.675362 0.231116
0.533158 0.51711 0.109638
0.648984 0.610094 0.103408
0.709865 0.551049 0.00754969
0.6344 0.673364 -0.0060659
0.520826 0.689601 0.0213348
0.698711 0.485352 0.132147
0.5794 0.5664 0.218727
0.635908 0.711567 0.18384
0.803798 0.609467 0.0944324
0.863495 0.543035 0.977749
0.984246 0.491374 0.972372
0.918019 0.548335 0.112501
0.930882 0.649684 0.0574134
0.853738 0.739647 0.122413
0.038123 0.6604 0.00766311
0.796588 0.548227 0.21706
0.768922 0.682347 0.254149
0.957483 0.7298 0.185061
0.208364 0.860494 0.0575304
0.0589339 0.860873 0.0649327
0.177484 0.956177 0.979328
0.991476 0.972339 0.251786
0.146106 0.989977 0.25276
0.0651843 0.884796 0.181852